
#(C) 2018 by FIZ Karlsruhe - Leibniz Institute for Information Infrastructure.  All rights reserved.
data_10425-ICSD
_database_code_ICSD 10425
_audit_creation_date 1980-12-31
_audit_update_record 1997-11-10
_chemical_name_systematic 'Aluminium oxide - alpha'
_chemical_formula_structural 'Al2 O3'
_chemical_formula_sum 'Al2 O3'
_chemical_name_structure_type Corundum-Al2O3
_chemical_name_mineral Corundum
_exptl_crystal_density_diffrn 4.
_cell_measurement_temperature 300.
_publ_section_title 'A structural investigation of alpha-Al2 O3 at 2170K'
loop_
_citation_id
_citation_journal_full
_citation_year
_citation_journal_volume
_citation_page_first
_citation_page_last
_citation_journal_id_ASTM
primary

;
Acta Crystallographica, Section B: Structural Crystallography and Crystal
Chemistry
; 1980 36 228 230 ACBCAR
loop_
_publ_author_name
'Ishizawa, N.'
'Miyata, T.'
'Minato, I.'
'Marumo, F.'
'Iwai, S.I.'
_cell_length_a 4.754(1)
_cell_length_b 4.754(1)
_cell_length_c 12.99(2)
_cell_angle_alpha 90.
_cell_angle_beta 90.
_cell_angle_gamma 120.
_cell_volume 254.25
_cell_formula_units_Z 6
_symmetry_space_group_name_H-M 'R -3 c H'
_symmetry_Int_Tables_number 167
_refine_ls_R_factor_all 0.027
loop_
_symmetry_equiv_pos_site_id
_symmetry_equiv_pos_as_xyz
1 'x-y, -y, -z+1/2'
2 '-x, -x+y, -z+1/2'
3 'y, x, -z+1/2'
4 'x-y, x, -z'
5 'y, -x+y, -z'
6 '-x, -y, -z'
7 '-x+y, y, z+1/2'
8 'x, x-y, z+1/2'
9 '-y, -x, z+1/2'
10 '-x+y, -x, z'
11 '-y, x-y, z'
12 'x, y, z'
13 'x-y+2/3, -y+1/3, -z+5/6'
14 '-x+2/3, -x+y+1/3, -z+5/6'
15 'y+2/3, x+1/3, -z+5/6'
16 'x-y+2/3, x+1/3, -z+1/3'
17 'y+2/3, -x+y+1/3, -z+1/3'
18 '-x+2/3, -y+1/3, -z+1/3'
19 '-x+y+2/3, y+1/3, z+5/6'
20 'x+2/3, x-y+1/3, z+5/6'
21 '-y+2/3, -x+1/3, z+5/6'
22 '-x+y+2/3, -x+1/3, z+1/3'
23 '-y+2/3, x-y+1/3, z+1/3'
24 'x+2/3, y+1/3, z+1/3'
25 'x-y+1/3, -y+2/3, -z+1/6'
26 '-x+1/3, -x+y+2/3, -z+1/6'
27 'y+1/3, x+2/3, -z+1/6'
28 'x-y+1/3, x+2/3, -z+2/3'
29 'y+1/3, -x+y+2/3, -z+2/3'
30 '-x+1/3, -y+2/3, -z+2/3'
31 '-x+y+1/3, y+2/3, z+1/6'
32 'x+1/3, x-y+2/3, z+1/6'
33 '-y+1/3, -x+2/3, z+1/6'
34 '-x+y+1/3, -x+2/3, z+2/3'
35 '-y+1/3, x-y+2/3, z+2/3'
36 'x+1/3, y+2/3, z+2/3'
loop_
_atom_type_symbol
_atom_type_oxidation_number
Al3+ 3
O2- -2
loop_
_atom_site_label
_atom_site_type_symbol
_atom_site_symmetry_multiplicity
_atom_site_Wyckoff_symbol
_atom_site_fract_x
_atom_site_fract_y
_atom_site_fract_z
_atom_site_B_iso_or_equiv
_atom_site_occupancy
_atom_site_attached_hydrogens
Al1 Al3+ 12 c 0 0 0.35228(5) . 1. 0
O1 O2- 18 e 0.3064(3) 0 0.25 . 1. 0
loop_
_atom_site_aniso_label
_atom_site_aniso_type_symbol
_atom_site_aniso_U_11
_atom_site_aniso_U_22
_atom_site_aniso_U_33
_atom_site_aniso_U_12
_atom_site_aniso_U_13
_atom_site_aniso_U_23
Al1 Al3+ 0.0051(2) 0.0051(2) 0.0019(2) 0.00255(10) 0 0
O1 O2- 0.0051(3) 0.0051(4) 0.0025(3) 0.00255(20) 0.00035(10) 0.0007(2)
#End of TTdata_10425-ICSD