
#(C) 2018 by FIZ Karlsruhe - Leibniz Institute for Information Infrastructure.  All rights reserved.
data_239677-ICSD
_database_code_ICSD 239677
_audit_creation_date 2016-08-01
_chemical_name_systematic 'Dicopper zinc tin(IV) tetrasulfide'
_chemical_formula_structural 'Cu2 Zn Sn S4'
_chemical_formula_sum 'Cu2 S4 Sn1 Zn1'
_chemical_name_structure_type Stannite-Cu2FeSnS4
_exptl_crystal_density_diffrn 4.56
_publ_section_title

;
The order-disorder transition in Cu2 Zn Sn S4 - A neutron scattering
investigation
;
loop_
_citation_id
_citation_journal_full
_citation_year
_citation_journal_volume
_citation_page_first
_citation_page_last
_citation_journal_id_ASTM
primary 'Journal of Solid State Chemistry' 2016 238 68 73 JSSCBI
loop_
_publ_author_name
'Ritscher, A.'
'Hoelzel, M.'
'Lerch, M.'
_cell_length_a 5.43382(8)
_cell_length_b 5.43382(8)
_cell_length_c 10.8373(2)
_cell_angle_alpha 90.
_cell_angle_beta 90.
_cell_angle_gamma 90.
_cell_volume 319.98
_cell_formula_units_Z 2
_symmetry_space_group_name_H-M 'I -4'
_symmetry_Int_Tables_number 82
_refine_ls_R_factor_all 0.0252
loop_
_symmetry_equiv_pos_site_id
_symmetry_equiv_pos_as_xyz
1 '-y, x, -z'
2 'y, -x, -z'
3 '-x, -y, z'
4 'x, y, z'
5 '-y+1/2, x+1/2, -z+1/2'
6 'y+1/2, -x+1/2, -z+1/2'
7 '-x+1/2, -y+1/2, z+1/2'
8 'x+1/2, y+1/2, z+1/2'
loop_
_atom_type_symbol
_atom_type_oxidation_number
Cu1+ 1
Zn2+ 2
Cu1+ 1
Zn2+ 2
Sn4+ 4
S2- -2
loop_
_atom_site_label
_atom_site_type_symbol
_atom_site_symmetry_multiplicity
_atom_site_Wyckoff_symbol
_atom_site_fract_x
_atom_site_fract_y
_atom_site_fract_z
_atom_site_B_iso_or_equiv
_atom_site_occupancy
_atom_site_attached_hydrogens
Cu1 Cu1+ 2 a 0 0 0 1.43(9) 1. 0
Cu2 Cu1+ 2 c 0 0.5 0.25 1.90(12) 0.97(2) 0
Zn1 Zn2+ 2 c 0 0.5 0.25 1.90(12) 0.03(2) 0
Cu3 Cu1+ 2 d 0 0.5 0.75 0.57(12) 0.03(2) 0
Zn2 Zn2+ 2 d 0 0.5 0.75 0.57(12) 0.97(2) 0
Sn1 Sn4+ 2 b 0 0 0.5 0.30(8) 1. 0
S1 S2- 8 g 0.757(19) 0.758(15) 0.8740(8) 0.718(12) 1. 0
#End of TTdata_239677-ICSD