
#(C) 2018 by FIZ Karlsruhe - Leibniz Institute for Information Infrastructure.  All rights reserved.
data_15890-ICSD
_database_code_ICSD 15890
_audit_creation_date 1980-01-01
_audit_update_record 2015-02-01
_chemical_name_systematic 'Mercury oxide'
_chemical_formula_structural 'Hg O'
_chemical_formula_sum 'Hg1 O1'
_chemical_name_structure_type HgO
_chemical_name_mineral Montroydite
_exptl_crystal_density_diffrn 11.19
_publ_section_title

;
The crystal structure of mercury(II) oxide studied by X-Ray and neutron
diffraction methods
;
loop_
_citation_id
_citation_journal_full
_citation_year
_citation_journal_volume
_citation_page_first
_citation_page_last
_citation_journal_id_ASTM
primary 'Acta Chemica Scandinavica ' 1956 10 852 866 ACSAA4
loop_
_publ_author_name
'Aurivillius, K.'
_cell_length_a 6.612(1)
_cell_length_b 5.520(1)
_cell_length_c 3.521(3)
_cell_angle_alpha 90.
_cell_angle_beta 90.
_cell_angle_gamma 90.
_cell_volume 128.51
_cell_formula_units_Z 4
_symmetry_space_group_name_H-M 'P n m a'
_symmetry_Int_Tables_number 62
_refine_ls_R_factor_all 0.068
loop_
_symmetry_equiv_pos_site_id
_symmetry_equiv_pos_as_xyz
1 'x+1/2, y, -z+1/2'
2 'x, -y+1/2, z'
3 '-x+1/2, y+1/2, z+1/2'
4 '-x, -y, -z'
5 '-x+1/2, -y, z+1/2'
6 '-x, y+1/2, -z'
7 'x+1/2, -y+1/2, -z+1/2'
8 'x, y, z'
loop_
_atom_type_symbol
_atom_type_oxidation_number
Hg2+ 2
O2- -2
loop_
_atom_site_label
_atom_site_type_symbol
_atom_site_symmetry_multiplicity
_atom_site_Wyckoff_symbol
_atom_site_fract_x
_atom_site_fract_y
_atom_site_fract_z
_atom_site_B_iso_or_equiv
_atom_site_occupancy
_atom_site_attached_hydrogens
Hg1 Hg2+ 4 c 0.115 0.25 0.245 . 1. 0
O1 O2- 4 c 0.365 0.25 0.585 . 1. 0
#End of TTdata_15890-ICSD