
#(C) 2018 by FIZ Karlsruhe - Leibniz Institute for Information Infrastructure.  All rights reserved.
data_34025-ICSD
_database_code_ICSD 34025
_audit_creation_date 1980-01-01
_audit_update_record 2010-02-01
_chemical_name_systematic 'Disilicon dinitride oxide'
_chemical_formula_structural 'Si2 N2 O'
_chemical_formula_sum 'N2 O1 Si2'
_chemical_name_structure_type Si2N2O
_chemical_name_mineral Sinoite
_exptl_crystal_density_diffrn 2.84
_publ_section_title 'Structure of Si2 N2 O'
loop_
_citation_id
_citation_journal_full
_citation_year
_citation_journal_volume
_citation_page_first
_citation_page_last
_citation_journal_id_ASTM
primary 'Acta Chemica Scandinavica ' 1964 18 1879 1886 ACSAA4
loop_
_publ_author_name
'Idrestedt, I.'
'Brosset, C.'
_cell_length_a 8.843(5)
_cell_length_b 5.473(5)
_cell_length_c 4.835(5)
_cell_angle_alpha 90.
_cell_angle_beta 90.
_cell_angle_gamma 90.
_cell_volume 234.
_cell_formula_units_Z 4
_symmetry_space_group_name_H-M 'C m c 21'
_symmetry_Int_Tables_number 36
_refine_ls_R_factor_all 0.075
loop_
_symmetry_equiv_pos_site_id
_symmetry_equiv_pos_as_xyz
1 'x, -y, z+1/2'
2 '-x, -y, z+1/2'
3 '-x, y, z'
4 'x, y, z'
5 'x+1/2, -y+1/2, z+1/2'
6 '-x+1/2, -y+1/2, z+1/2'
7 '-x+1/2, y+1/2, z'
8 'x+1/2, y+1/2, z'
loop_
_atom_type_symbol
_atom_type_oxidation_number
Si4+ 4
N3- -3
O2- -2
loop_
_atom_site_label
_atom_site_type_symbol
_atom_site_symmetry_multiplicity
_atom_site_Wyckoff_symbol
_atom_site_fract_x
_atom_site_fract_y
_atom_site_fract_z
_atom_site_B_iso_or_equiv
_atom_site_occupancy
_atom_site_attached_hydrogens
Si1 Si4+ 8 b 0.1763(7) 0.1509(6) 0.2898(23) 0.42 1. 0
N1 N3- 8 b 0.218(3) 0.121(2) 0.642(3) 1.54 1. 0
O1 O2- 4 a 0 0.214(2) 0.230(3) 0.35 1. 0
#End of TTdata_34025-ICSD