
#(C) 2018 by FIZ Karlsruhe - Leibniz Institute for Information Infrastructure.  All rights reserved.
data_236386-ICSD
_database_code_ICSD 236386
_audit_creation_date 2014-02-01
_chemical_name_systematic 'Tantalum oxide (2/5)'
_chemical_formula_structural 'Ta2 O5'
_chemical_formula_sum 'O5 Ta2'
_exptl_crystal_density_diffrn 8.32
_cell_measurement_temperature 295.
_publ_section_title

;
Unprecedented electron-poor octahedral Ta6 clusters in a solid-state compound:
synthesis, characterisations and theoretical investigations of Cs2 Ba Ta6 Br15
O3
;
loop_
_citation_id
_citation_journal_full
_citation_year
_citation_journal_volume
_citation_page_first
_citation_page_last
_citation_journal_id_ASTM
primary 'Chemistry - A European Journal' 2013 19 12711 12719 CEUJED
loop_
_publ_author_name
'Demont, Antoine'
'Prestipino, Carmelo'
'Hernandez, Olivier'
'Elkaim, Erik'
'Paofai, Serge'
'Naumov, Nikolai'
'Fontaine, Bruno'
'Gautier, Regis'
'Cordier, Stephane'
_cell_length_a 6.1886(3)
_cell_length_b 3.66227(13)
_cell_length_c 7.7838(2)
_cell_angle_alpha 90.
_cell_angle_beta 90.
_cell_angle_gamma 90.
_cell_volume 176.41
_cell_formula_units_Z 2
_symmetry_space_group_name_H-M 'P c c m'
_symmetry_Int_Tables_number 49
_refine_ls_R_factor_all 0.0649
loop_
_symmetry_equiv_pos_site_id
_symmetry_equiv_pos_as_xyz
1 '-x, y, -z+1/2'
2 'x, -y, -z+1/2'
3 'x, y, -z'
4 '-x, -y, -z'
5 'x, -y, z+1/2'
6 '-x, y, z+1/2'
7 '-x, -y, z'
8 'x, y, z'
loop_
_atom_type_symbol
_atom_type_oxidation_number
Ta5+ 5
O2- -2
loop_
_atom_site_label
_atom_site_type_symbol
_atom_site_symmetry_multiplicity
_atom_site_Wyckoff_symbol
_atom_site_fract_x
_atom_site_fract_y
_atom_site_fract_z
_atom_site_B_iso_or_equiv
_atom_site_occupancy
_atom_site_attached_hydrogens
Ta1 Ta5+ 2 a 0. 0. 0. 0.00456 1. 0
Ta2 Ta5+ 2 b 0.5 0.5 0.5 0.00418 1. 0
O1 O2- 2 c 0. 0.5 0. 0.00545 1. 0
O2 O2- 4 q 0.319 -0.002 0. 0.00494 1. 0
O3 O2- 2 e 0. 0. 0.25 0.00608 1. 0
O4 O2- 2 h 0.5 0.5 0.25 0.00621 1. 0
#End of TTdata_236386-ICSD