
#(C) 2018 by FIZ Karlsruhe - Leibniz Institute for Information Infrastructure.  All rights reserved.
data_18190-ICSD
_database_code_ICSD 18190
_audit_creation_date 1986-09-24
_audit_update_record 2015-02-01
_chemical_name_systematic 'Zirconium oxide'
_chemical_formula_structural 'Zr O2'
_chemical_formula_sum 'O2 Zr1'
_chemical_name_structure_type Baddeleyite-ZrO2(mP12)
_exptl_crystal_density_diffrn 5.83
_publ_section_title

;
The crystal structure of baddeleyite (monoclinic Zr O2) and its relation to
the polymorphism of Zr O2
;
loop_
_citation_id
_citation_journal_full
_citation_year
_citation_journal_volume
_citation_page_first
_citation_page_last
_citation_journal_id_ASTM
primary 'Acta Crystallographica' 1965 18 983 991 ACCRA9
loop_
_publ_author_name
'Smith, D.K.jr.'
'Newkirk, H.W.'
_cell_length_a 5.145(5)
_cell_length_b 5.2075(5)
_cell_length_c 5.3107(5)
_cell_angle_alpha 90.
_cell_angle_beta 99.23(8)
_cell_angle_gamma 90.
_cell_volume 140.45
_cell_formula_units_Z 4
_symmetry_space_group_name_H-M 'P 1 21/c 1'
_symmetry_Int_Tables_number 14
_refine_ls_R_factor_all 0.086
loop_
_symmetry_equiv_pos_site_id
_symmetry_equiv_pos_as_xyz
1 'x, -y+1/2, z+1/2'
2 '-x, -y, -z'
3 '-x, y+1/2, -z+1/2'
4 'x, y, z'
loop_
_atom_type_symbol
_atom_type_oxidation_number
Zr4+ 4
O2- -2
loop_
_atom_site_label
_atom_site_type_symbol
_atom_site_symmetry_multiplicity
_atom_site_Wyckoff_symbol
_atom_site_fract_x
_atom_site_fract_y
_atom_site_fract_z
_atom_site_B_iso_or_equiv
_atom_site_occupancy
_atom_site_attached_hydrogens
Zr1 Zr4+ 4 e 0.2758(2) 0.0411(2) 0.2082(2) . 1. 0
O1 O2- 4 e 0.0703(15) 0.3359(14) 0.3406(13) . 1. 0
O2 O2- 4 e 0.4423(15) 0.7549(14) 0.4789(13) . 1. 0
loop_
_atom_site_aniso_label
_atom_site_aniso_type_symbol
_atom_site_aniso_beta_11
_atom_site_aniso_beta_22
_atom_site_aniso_beta_33
_atom_site_aniso_beta_12
_atom_site_aniso_beta_13
_atom_site_aniso_beta_23
Zr1 Zr4+ 0.0029 0.0008 0.0013 -.0002 0.0008 0.0003
O1 O2- 0.0098 0.0024 0.0038 0.0014 -.001 -.0021
O2 O2- 0.0102 0.0025 0.0017 0.0007 0.001 0.0004
#End of TTdata_18190-ICSD